LAMMPS data file Created by LigParGen - (Written by Leela S. Dodda)

       6 atoms
       5 bonds
       7 angles
       3 dihedrals
       2 impropers
 
       6 atom types
       5 bond types
       7 angle types
       3 dihedral types
       2 improper types
 
   -1.269370    48.730630 xlo xhi
    0.105500    50.105500 ylo yhi
   -0.525130    49.474870 zlo zhi

Masses

       1     18.998  
       2     12.011  
       3     12.011  
       4     14.007  
       5      1.008  
       6      1.008  

Pair Coeffs 

       1      0.060  2.9000000 
       2      0.066  3.5000000 
       3      0.066  3.3000000 
       4      0.170  3.2000000 
       5      0.030  2.5000000 
       6      0.030  2.5000000 

Bond Coeffs 

       1   367.0000     1.3600 
       2   390.0000     1.4700 
       3   650.0000     1.1570 
       4   340.0000     1.0900 
       5   340.0000     1.0900 

Angle Coeffs 

       1     51.650    110.580
       2    150.000    180.000
       3     40.000    107.000
       4     40.000    107.000
       5     33.000    107.800
       6     35.000    108.500
       7     35.000    108.500

Dihedral Coeffs  

       1      0.000      0.000      0.000      0.000 
       2      0.000      0.000      0.000      0.000 
       3      0.000      0.000      0.000      0.000 

Improper Coeffs 

       1      0.000      -1       2 
       2      0.000      -1       2 

Atoms 

     1      1      1 -0.14700000    1.000  1.00000  0.00000
     2      1      2 0.15380000   -0.361  1.00000  0.00000
     3      1      3 0.07990000   -0.857  1.00000  1.43679
     4      1      4 -0.34310000   -1.269  0.99889  2.62838
     5      1      5 0.12820000   -0.706  0.10550 -0.52513
     6      1      6 0.12820000   -0.706  1.89444 -0.52510

Bonds 

     1      1      2      1
     2      2      3      2
     3      3      4      3
     4      4      5      2
     5      5      6      2

Angles 

     1      1      1      2      3
     2      2      2      3      4
     3      3      1      2      5
     4      4      1      2      6
     5      5      5      2      6
     6      6      3      2      5
     7      7      3      2      6

Dihedrals

     1      1      4      3      2      1 
     2      2      6      2      3      4 
     3      3      5      2      3      4 

Impropers

     1      1      2      1      3      5 
     2      2      2      1      3      6 

